 &FCI NORB=  6,NELEC= 4,MS2= 0,
  ORBSYM=1,1,2,3,5,5,
  ISYM=0,
 /
  0.7511586033441269E+00   1   1   1   1
  0.1088995836823146E+00   2   1   1   1
  0.5102813878906510E-01   2   1   2   1
  0.5434364540546525E+00   2   2   1   1
  0.1644291729212830E-01   2   2   2   1
  0.5858705411549316E+00   2   2   2   2
  0.6195865503748903E+00   3   3   1   1
  0.4707805454135727E-01   3   3   2   1
  0.5185263292986552E+00   3   3   2   2
  0.5896781659357903E+00   3   3   3   3
  0.6195865503748903E+00   4   4   1   1
  0.4707805454135727E-01   4   4   2   1
  0.5185263292986552E+00   4   4   2   2
  0.5414415227343352E+00   4   4   3   3
  0.5896781659357903E+00   4   4   4   4
  0.5129128247891561E+00   5   5   1   1
 -0.7911389532665458E-03   5   5   2   1
  0.5582727160808093E+00   5   5   2   2
  0.5106764544113219E+00   5   5   3   3
  0.5106764544113219E+00   5   5   4   4
  0.5465084775216967E+00   5   5   5   5
  0.7308182431536879E-01   6   5   1   1
  0.2897008459323209E-01   6   5   2   1
 -0.2786584644806431E-01   6   5   2   2
  0.4149746320756854E-01   6   5   3   3
  0.4149746320756854E-01   6   5   4   4
 -0.2018521067067186E-01   6   5   5   5
  0.4762669137275587E-01   6   5   6   5
  0.7267061011618966E+00   6   6   1   1
  0.8736549717217990E-01   6   6   2   1
  0.5950733224182219E+00   6   6   2   2
  0.6216799919269432E+00   6   6   3   3
  0.6216799919269432E+00   6   6   4   4
  0.5606171718841840E+00   6   6   5   5
  0.4483025554927533E-01   6   6   6   5
  0.7616193415159794E+00   6   6   6   6
  0.1056532978615481E+00   3   1   3   1
 -0.1402402626388023E-01   3   2   3   1
  0.2809930475864091E-01   3   2   3   2
  0.1056532978615481E+00   4   1   4   1
 -0.1402402626388023E-01   4   2   4   1
  0.2809930475864091E-01   4   2   4   2
  0.2411832158885131E-01   4   3   4   3
  0.5514081939079273E-01   5   1   5   1
 -0.9213840664283401E-01   5   2   5   1
  0.2247877430833920E+00   5   2   5   2
  0.5874115927656441E-01   6   1   5   1
 -0.5789789710545383E-01   6   1   5   2
  0.1067053355275137E+00   6   1   6   1
  0.5343754736607056E-01   6   2   5   1
 -0.1240040505036384E+00   6   2   5   2
  0.5850931361725985E-01   6   2   6   1
  0.9075686290103566E-01   6   2   6   2
  0.5055325291973130E-01   5   3   5   3
  0.2392541656420243E-01   6   3   5   3
  0.3549729767465082E-01   6   3   6   3
  0.5055325291973130E-01   5   4   5   4
  0.2392541656420243E-01   6   4   5   4
  0.3549729767465082E-01   6   4   6   4
 -0.6474808247277489E+01   1   1   0   0
 -0.4322589004039334E+00   2   1   0   0
 -0.5072795472498347E+01   2   2   0   0
 -0.5340073595487808E+01   3   3   0   0
 -0.5340073595487808E+01   4   4   0   0
 -0.5072022917022270E+01   5   5   0   0
 -0.2536486559925444E+00   6   5   0   0
 -0.4793965146797929E+01   6   6   0   0
 -0.7632407300019204E+02   0   0   0   0
