 &FCI NORB=  8,NELEC= 10,MS2= 0,
  ORBSYM=1,1,2,3,5,5,6,7,
  ISYM=0,
 /
  0.7511586033441269E+00   1   1   1   1
  0.1088995836823146E+00   2   1   1   1
  0.5102813878906510E-01   2   1   2   1
  0.5434364540546525E+00   2   2   1   1
  0.1644291729212830E-01   2   2   2   1
  0.5858705411549316E+00   2   2   2   2
  0.6195865503748903E+00   3   3   1   1
  0.4707805454135727E-01   3   3   2   1
  0.5185263292986552E+00   3   3   2   2
  0.5896781659357903E+00   3   3   3   3
  0.6195865503748903E+00   4   4   1   1
  0.4707805454135727E-01   4   4   2   1
  0.5185263292986552E+00   4   4   2   2
  0.5414415227343352E+00   4   4   3   3
  0.5896781659357903E+00   4   4   4   4
  0.5129128247891561E+00   5   5   1   1
 -0.7911389532665458E-03   5   5   2   1
  0.5582727160808093E+00   5   5   2   2
  0.5106764544113219E+00   5   5   3   3
  0.5106764544113219E+00   5   5   4   4
  0.5465084775216967E+00   5   5   5   5
  0.7308182431536879E-01   6   5   1   1
  0.2897008459323209E-01   6   5   2   1
 -0.2786584644806431E-01   6   5   2   2
  0.4149746320756854E-01   6   5   3   3
  0.4149746320756854E-01   6   5   4   4
 -0.2018521067067186E-01   6   5   5   5
  0.4762669137275587E-01   6   5   6   5
  0.7267061011618966E+00   6   6   1   1
  0.8736549717217990E-01   6   6   2   1
  0.5950733224182219E+00   6   6   2   2
  0.6216799919269432E+00   6   6   3   3
  0.6216799919269432E+00   6   6   4   4
  0.5606171718841840E+00   6   6   5   5
  0.4483025554927533E-01   6   6   6   5
  0.7616193415159794E+00   6   6   6   6
  0.5979120226407973E+00   7   7   1   1
  0.2933352280587458E-01   7   7   2   1
  0.5416631925941604E+00   7   7   2   2
  0.5883695557907698E+00   7   7   3   3
  0.5425158429677338E+00   7   7   4   4
  0.5368727169838317E+00   7   7   5   5
  0.2816635564197989E-01   7   7   6   5
  0.6230196471251142E+00   7   7   6   6
  0.6061618374786740E+00   7   7   7   7
  0.5979120226407973E+00   8   8   1   1
  0.2933352280587458E-01   8   8   2   1
  0.5416631925941604E+00   8   8   2   2
  0.5425158429677338E+00   8   8   3   3
  0.5883695557907698E+00   8   8   4   4
  0.5368727169838317E+00   8   8   5   5
  0.2816635564197989E-01   8   8   6   5
  0.6230196471251142E+00   8   8   6   6
  0.5558972228953103E+00   8   8   7   7
  0.6061618374786740E+00   8   8   8   8
  0.1056532978615481E+00   3   1   3   1
 -0.1402402626388023E-01   3   2   3   1
  0.2809930475864091E-01   3   2   3   2
  0.7407119706570199E-01   7   5   3   1
 -0.3766566315215249E-01   7   5   3   2
  0.8237567599453122E-01   7   5   7   5
  0.6220521600497379E-01   7   6   3   1
  0.7966523054340836E-04   7   6   3   2
  0.3633330588728209E-01   7   6   7   5
  0.4752509043283280E-01   7   6   7   6
  0.1056532978615481E+00   4   1   4   1
 -0.1402402626388023E-01   4   2   4   1
  0.2809930475864091E-01   4   2   4   2
  0.7407119706570199E-01   8   5   4   1
 -0.3766566315215249E-01   8   5   4   2
  0.8237567599453122E-01   8   5   8   5
  0.6220521600497379E-01   8   6   4   1
  0.7966523054340836E-04   8   6   4   2
  0.3633330588728209E-01   8   6   8   5
  0.4752509043283280E-01   8   6   8   6
  0.2411832158885131E-01   4   3   4   3
  0.2292685640833768E-01   8   7   4   3
  0.2513230728707700E-01   8   7   8   7
  0.5514081939079273E-01   5   1   5   1
 -0.9213840664283401E-01   5   2   5   1
  0.2247877430833920E+00   5   2   5   2
  0.5874115927656441E-01   6   1   5   1
 -0.5789789710545383E-01   6   1   5   2
  0.1067053355275137E+00   6   1   6   1
  0.5343754736607056E-01   6   2   5   1
 -0.1240040505036384E+00   6   2   5   2
  0.5850931361725985E-01   6   2   6   1
  0.9075686290103566E-01   6   2   6   2
  0.9529094725804338E-01   7   3   5   1
 -0.1575707934371237E+00   7   3   5   2
  0.1022871251114912E+00   7   3   6   1
  0.9093964915040417E-01   7   3   6   2
  0.1867468011995924E+00   7   3   7   3
  0.9529094725804338E-01   8   4   5   1
 -0.1575707934371237E+00   8   4   5   2
  0.1022871251114912E+00   8   4   6   1
  0.9093964915040417E-01   8   4   6   2
  0.1488401627046892E+00   8   4   7   3
  0.1867468011995924E+00   8   4   8   4
  0.5055325291973130E-01   5   3   5   3
  0.2392541656420243E-01   6   3   5   3
  0.3549729767465082E-01   6   3   6   3
  0.4256273620521386E-01   7   1   5   3
  0.3412164975381819E-01   7   1   6   3
  0.4394846782887728E-01   7   1   7   1
 -0.3925985715576936E-01   7   2   5   3
 -0.4752451768104612E-02   7   2   6   3
 -0.2504544937217777E-01   7   2   7   1
  0.3845270557081890E-01   7   2   7   2
  0.5055325291973130E-01   5   4   5   4
  0.2392541656420243E-01   6   4   5   4
  0.3549729767465082E-01   6   4   6   4
  0.4256273620521386E-01   8   1   5   4
  0.3412164975381819E-01   8   1   6   4
  0.4394846782887728E-01   8   1   8   1
 -0.3925985715576936E-01   8   2   5   4
 -0.4752451768104612E-02   8   2   6   4
 -0.2504544937217777E-01   8   2   8   1
  0.3845270557081890E-01   8   2   8   2
  0.1895331924705531E-01   7   4   7   4
  0.1895331924705531E-01   8   3   7   4
  0.1895331924705531E-01   8   3   8   3
 -0.6474808247277489E+01   1   1   0   0
 -0.4322589004039334E+00   2   1   0   0
 -0.5072795472498347E+01   2   2   0   0
 -0.5340073595487808E+01   3   3   0   0
 -0.5340073595487808E+01   4   4   0   0
 -0.5072022917022270E+01   5   5   0   0
 -0.2536486559925444E+00   6   5   0   0
 -0.4793965146797929E+01   6   6   0   0
 -0.4959445080063359E+01   7   7   0   0
 -0.4959445080063359E+01   8   8   0   0
 -0.7632407300019204E+02   0   0   0   0
